# vtk DataFile Version 4.0
tmp/tmp_file.vtk
ASCII
DATASET POLYDATA
POINTS 1105 double
0.167832 0.129371 0
0.171901 0.167737 0
0.173552 0.206284 0
0.17278 0.244858 0
0.169588 0.283308 0
0.163987 0.321481 0
0.156 0.359227 0
0.145659 0.396398 0
0.133005 0.432845 0
0.118087 0.468427 0
0.100964 0.503001 0
0.0817045 0.536432 0
0.0603835 0.568587 0
0.0370855 0.599341 0
0.0119024 0.62857 0
-0.0150663 0.656161 0
-0.0437142 0.682004 0
-0.0739283 0.705997 0
-0.105589 0.728046 0
-0.138572 0.748063 0
-0.172747 0.76597 0
-0.207979 0.781695 0
-0.244129 0.795178 0
-0.281053 0.806363 0
-0.318608 0.815209 0
-0.356643 0.821678 0
-0.39501 0.825747 0
-0.433557 0.827398 0
-0.472131 0.826626 0
-0.510581 0.823434 0
-0.548754 0.817833 0
-0.5865 0.809846 0
-0.62367 0.799506 0
-0.660118 0.786851 0
-0.695699 0.771933 0
-0.730274 0.754811 0
-0.763704 0.735551 0
-0.79586 0.71423 0
-0.826613 0.690932 0
-0.855843 0.665749 0
-0.883434 0.63878 0
-0.909277 0.610132 0
-0.93327 0.579918 0
-0.955319 0.548257 0
-0.975336 0.515274 0
-0.993243 0.481099 0
-1.00897 0.445867 0
-1.02245 0.409718 0
-1.03364 0.372793 0
-1.04248 0.335238 0
-1.04895 0.297203 0
-1.05302 0.258836 0
-1.05467 0.220289 0
-1.0539 0.181715 0
-1.05071 0.143266 0
-1.04511 0.105092 0
-1.03712 0.067346 0
-1.02678 0.0301757 0
-1.01412 -0.00627195 0
-0.999206 -0.0418531 0
-0.982083 -0.0764274 0
-0.962823 -0.109858 0
-0.941502 -0.142014 0
-0.918204 -0.172767 0
-0.893021 -0.201997 0
-0.866053 -0.229588 0
-0.837405 -0.255431 0
-0.807191 -0.279424 0
-0.77553 -0.301473 0
-0.742547 -0.32149 0
-0.708372 -0.339397 0
-0.67314 -0.355122 0
-0.63699 -0.368604 0
-0.600066 -0.37979 0
-0.562511 -0.388635 0
-0.524476 -0.395105 0
-0.486109 -0.399174 0
-0.447562 -0.400825 0
-0.408988 -0.400053 0
-0.370538 -0.39686 0
-0.332365 -0.39126 0
-0.294619 -0.383273 0
-0.257448 -0.372932 0
-0.221001 -0.360278 0
-0.18542 -0.34536 0
-0.150845 -0.328237 0
-0.117414 -0.308977 0
-0.0852589 -0.287656 0
-0.0545056 -0.264358 0
-0.0252758 -0.239175 0
0.00231507 -0.212206 0
0.0281581 -0.183559 0
0.0521513 -0.153344 0
0.0742 -0.121683 0
0.0942172 -0.0887004 0
0.112124 -0.0545256 0
0.127849 -0.0192938 0
0.141332 0.0168558 0
0.152517 0.0537806 0
0.161363 0.091335 0
-0.440558 0.213284 0
-0.728362 0.324583 0
-0.351484 0.507316 0
-0.135044 0.180892 0
-0.523863 -0.0863278 0
-0.257661 -0.062828 0
-0.751593 0.0584352 0
-0.598755 0.537264 0
-0.128075 0.420482 0
-0.384508 -0.204519 0
-0.0759278 -0.00223132 0
-0.284642 0.33044 0
-0.870168 0.202021 0
-0.70624 -0.124152 0
-0.5494 0.360524 0
-0.613403 0.175067 0
-0.297434 0.106364 0
-0.774292 0.493233 0
-0.454005 0.648717 0
-0.194671 0.579955 0
-0.00747137 0.294718 0
-0.446547 0.0551413 0
-0.539014 -0.233442 0
0.0108488 0.128466 0
-0.876897 0.356886 0
-0.315072 0.663701 0
-0.246327 -0.21124 0
-0.612449 0.0345693 0
-0.114798 -0.132086 0
-0.892839 0.0653949 0
-0.831466 -0.055477 0
-0.392709 -0.0676242 0
-0.419708 0.38567 0
-0.711475 0.610668 0
-0.593861 0.670663 0
-0.48187 0.508913 0
-0.0753524 0.53614 0
-0.00015257 0.425448 0
-0.750138 0.190399 0
-0.658105 0.425475 0
-0.176519 0.296678 0
-0.181861 0.0684572 0
-0.253792 0.442758 0
-0.65822 -0.230133 0
-0.251454 0.21706 0
-0.879605 0.459916 0
-0.62585 0.285193 0
-0.51752 0.137512 0
0.0674195 0.220382 0
-0.447317 -0.293169 0
0.0293663 0.0229264 0
-0.946727 0.276483 0
-0.325713 -0.284147 0
-0.0263651 -0.0856851 0
-0.314948 0.00284586 0
-0.613485 -0.147498 0
-0.395382 0.724018 0
-0.533043 0.257823 0
-0.703568 -0.0234482 0
-0.215802 0.67816 0
-0.951511 0.154905 0
-0.348781 0.251432 0
-0.803674 -0.152899 0
-0.471166 -0.16386 0
-0.0815166 0.0986933 0
-0.793915 0.397586 0
-0.159311 -0.0454258 0
-0.816318 0.281182 0
-0.309821 -0.152273 0
-0.386332 0.13346 0
-0.0476627 0.204955 0
-0.80472 0.584111 0
-0.513916 0.722228 0
-0.387871 0.597255 0
-0.554113 0.452089 0
-0.28551 0.575145 0
-0.812954 0.121948 0
-0.674574 0.103929 0
-0.144218 -0.215379 0
-0.116913 0.603812 0
0.0623656 0.357366 0
-0.514412 0.577691 0
-0.52748 0.0109619 0
-0.0871312 0.339616 0
-0.446487 0.305768 0
-0.690191 0.524765 0
-0.906639 -0.0274168 0
-0.336046 0.423421 0
-0.179302 0.487092 0
-0.610564 -0.0602534 0
-0.744927 -0.217843 0
-0.681451 0.682442 0
-0.599651 -0.290655 0
-0.210246 0.143738 0
-0.00918112 0.498703 0
-0.205543 -0.136818 0
-0.219809 0.365691 0
-0.243447 0.0143436 0
-0.490331 0.419969 0
0.0834643 0.0872858 0
-0.94296 0.408313 0
-0.825899 0.0215341 0
-0.696876 0.247177 0
-0.532108 -0.306656 0
-0.101407 0.269281 0
-0.468979 -0.0310261 0
-0.370622 0.322391 0
-0.635695 0.607335 0
-0.58153 0.111926 0
-0.867691 0.544104 0
-0.322067 0.74518 0
-0.418535 0.462085 0
-0.241599 -0.287797 0
0.0989549 0.293447 0
-0.32786 0.173825 0
-0.06662 0.45995 0
-0.755321 -0.0608519 0
-0.379567 -0.322898 0
-0.0524553 -0.163988 0
-0.659578 0.351697 0
-0.372318 0.059867 0
-0.445405 0.563823 0
0.0313221 -0.0505887 0
-0.982626 0.211773 0
-0.250761 0.514991 0
-0.96486 0.0754287 0
0.0966018 0.159963 0
-0.733301 0.435781 0
-0.970392 0.341238 0
-0.862883 -0.123468 0
-0.181995 0.229436 0
-0.409356 -0.136673 0
-0.542277 -0.164804 0
-0.242222 0.28468 0
-0.766399 0.643554 0
-0.579566 0.743445 0
-0.551706 0.198243 0
-0.0934288 -0.0631622 0
-0.321142 -0.0750985 0
-0.450207 0.759419 0
-0.410551 0.000161292 0
-0.317639 -0.214146 0
-0.470381 -0.229412 0
-0.0358071 0.0466859 0
-0.527309 0.640541 0
-0.14778 0.67838 0
-0.803761 0.217327 0
0.066252 0.424523 0
-0.0487152 0.597912 0
-0.0227728 0.359509 0
-0.885459 0.137213 0
-0.598375 -0.20915 0
-0.254335 0.73116 0
-0.881867 0.289995 0
-0.447508 0.152692 0
-0.138459 0.0153038 0
-0.51037 0.0728772 0
-0.374675 0.667297 0
-0.7482 0.552502 0
-0.142887 0.541909 0
-0.732016 0.118617 0
-0.68018 0.171944 0
-0.691977 0.0417069 0
-0.540985 0.513975 0
-0.598643 0.402169 0
-0.61957 0.478148 0
-0.148321 0.120978 0
-0.47818 0.361582 0
-0.156153 0.360467 0
-0.460624 -0.10093 0
-0.707978 -0.265059 0
-0.255048 0.63202 0
-0.242402 0.0748048 0
-0.76004 0.266331 0
-0.668661 -0.169059 0
-0.768592 -0.00291056 0
-0.190084 0.420596 0
-0.280154 0.389611 0
-0.0865151 -0.210746 0
-0.852766 0.407813 0
-0.296438 0.480281 0
-0.182523 -0.276644 0
-0.82189 0.338728 0
-0.0805582 0.160751 0
-0.570838 0.602577 0
-0.0650224 0.403441 0
0.00913255 0.241754 0
-0.653918 -0.0984193 0
-0.268881 0.156614 0
-0.0170223 -0.0150913 0
-0.711572 0.379197 0
-0.383869 0.196641 0
-0.571379 0.302651 0
-0.396882 -0.26385 0
-0.404742 0.257253 0
-0.119894 0.486548 0
-0.909886 -0.0821168 0
-0.960497 0.0163057 0
-0.408588 0.521419 0
-0.59207 0.239424 0
-0.296024 0.272416 0
-0.493434 0.191311 0
-0.92494 0.221059 0
-0.658424 -0.299034 0
-0.936977 0.467515 0
-0.822307 0.460651 0
-0.805919 -0.211425 0
-0.733003 0.687305 0
-0.638408 0.735142 0
0.0858729 0.0295518 0
-0.446105 0.703739 0
-0.476786 -0.342174 0
0.0265702 0.181527 0
-0.562176 -0.0337596 0
-0.748511 -0.162042 0
-0.00466245 0.562518 0
0.0511066 0.479198 0
-0.330819 0.364561 0
-0.259871 -0.123977 0
-0.563309 0.0568505 0
-0.605902 0.34658 0
0.120635 0.224276 0
-0.326508 -0.336739 0
-0.19143 0.634273 0
-0.345957 0.55662 0
-0.200591 -0.0806962 0
-0.293418 0.0516996 0
-0.814061 0.53045 0
-1.00037 0.27265 0
-0.678468 0.29906 0
-0.00384554 -0.139726 0
-0.471328 0.255306 0
-0.191323 -0.18688 0
0.0259096 0.076714 0
-0.0463468 0.260914 0
-0.80647 0.0716282 0
-0.583852 -0.0862478 0
-0.691151 0.472218 0
-0.188788 0.00507219 0
-0.804089 -0.0948926 0
-0.647199 0.225379 0
-0.356404 -0.117328 0
-0.360512 0.767929 0
-0.644002 -0.00960212 0
-0.127146 0.0705289 0
-0.8598 0.585916 0
-0.331325 0.613191 0
0.0446307 0.302859 0
-0.917211 0.518483 0
-1.00394 0.16315 0
-0.283085 -0.0277341 0
-0.649983 0.557265 0
-0.424539 -0.35205 0
-0.572522 -0.335747 0
-0.852467 -0.169952 0
0.0732842 -0.0205156 0
-0.271209 -0.249585 0
-0.874521 0.0177727 0
-0.918431 0.323912 0
-0.18427 0.70698 0
-0.352998 -0.0466035 0
-0.515211 0.312928 0
-0.274148 -0.324544 0
-0.077356 -0.116563 0
-0.306908 0.213128 0
-0.472131 0.0104629 0
-0.0939006 0.211128 0
-0.503486 -0.275396 0
-0.785763 0.168032 0
0.109728 0.334657 0
-0.0504771 0.114945 0
-0.427794 0.10035 0
-0.348152 0.102963 0
-0.43696 -0.194823 0
-0.770726 0.352329 0
-0.521296 -0.123406 0
0.0299436 -0.102166 0
-0.26717 0.694491 0
-0.697227 -0.0729944 0
-0.995918 0.112982 0
-0.146382 -0.10273 0
-0.855251 0.246821 0
-0.924955 0.0993729 0
-0.634775 0.130368 0
-0.544673 0.76872 0
-0.821737 0.632152 0
-0.513719 0.460431 0
-0.573642 0.162439 0
-0.42293 0.609533 0
-0.364442 -0.175003 0
-0.539081 0.410226 0
-0.362719 0.457738 0
-0.269354 -0.164058 0
-0.631624 0.0801408 0
-0.638703 0.656303 0
-0.0794016 0.0480204 0
-0.501637 -0.195138 0
-0.30287 0.527856 0
-0.346728 0.70312 0
-0.554769 0.690548 0
-0.495421 0.68415 0
-0.246431 0.566006 0
-0.477666 0.60506 0
-0.179583 0.182052 0
-0.505924 -0.0360315 0
-0.114965 0.306456 0
0.061339 0.129261 0
0.0189072 0.377129 0
-0.453775 0.448104 0
-0.697947 -0.203009 0
-0.777031 0.443102 0
-0.763354 0.595812 0
-0.415454 0.340639 0
-0.104688 0.669729 0
0.0979608 0.390301 0
-0.353059 -0.253817 0
-0.482634 0.112844 0
-0.774238 0.303297 0
-0.413417 0.782003 0
-0.153042 -0.178821 0
-0.048957 -0.0502926 0
-0.914385 0.174811 0
-0.856008 0.0802955 0
0.118695 0.11174 0
-0.558789 -0.281035 0
-0.201706 0.535337 0
-0.118861 -0.270567 0
-0.146911 0.233824 0
-0.980014 0.389349 0
-0.841285 0.169484 0
-0.717745 0.495798 0
-0.57336 0.0108244 0
-0.493812 0.542451 0
-0.097501 0.56948 0
-0.151246 0.592253 0
-0.117483 -0.0257213 0
-0.212162 -0.0355317 0
-0.059625 0.309244 0
-0.494129 0.780937 0
-0.0440973 0.504584 0
-0.334054 0.286134 0
-0.0241003 0.169684 0
-0.613052 -0.248068 0
-0.3786 0.418619 0
-0.845642 0.497951 0
-0.870977 -0.0283448 0
-0.0645582 0.641049 0
-0.758259 -0.117021 0
0.0490153 0.261768 0
-0.56943 0.563494 0
-0.119076 0.380289 0
-0.220244 0.469747 0
-0.196869 -0.246301 0
-0.240969 0.323799 0
-0.693644 0.568621 0
-0.962131 -0.0454429 0
-0.894664 0.394053 0
-0.72555 0.0112682 0
-0.768766 -0.257926 0
-0.717184 0.0752428 0
-0.0151019 0.461039 0
-0.680761 0.647657 0
-0.161725 0.457409 0
-0.659708 -0.0519427 0
-0.245539 0.119888 0
-0.809699 -0.019883 0
[...]
POINT_DATA 1105
SCALARS Sigma_due_to_N double 1
LOOKUP_TABLE default
0.844471
0.844471
0.844471
0.844471
0.844471
0.844471
0.844471
0.844471
0.844471
0.844471
0.844471
0.844471
0.844471
0.844471
0.844471
0.844471
0.844471
0.844471
0.844471
0.844471
0.844471
0.844471
0.844471
0.844471
0.844471
0.844471
0.844471
0.844471
0.844471
0.844471
0.844471
0.844471
0.844471
0.844471
0.844471
0.844471
0.844471
0.844471
0.844471
0.844471
0.844471
0.844471
0.844471
0.844471
0.844471
0.844471
0.844471
0.844471
0.844471
0.844471
0.844471
0.844471
0.844471
0.844471
0.844471
0.844471
0.844471
0.844471
0.844471
0.844471
0.844471
0.844471
0.844471
0.844471
0.844471
0.844471
0.844471
0.844471
0.844471
0.844471
0.844471
0.844471
0.844471
0.844471
0.844471
0.844471
0.844471
0.844471
0.844471
0.844471
0.844471
0.844471
0.844471
0.844471
0.844471
0.844471
0.844471
0.844471
0.844471
0.844471
0.844471
0.844471
0.844471
0.844471
0.844471
0.844471
0.844471
0.844471
0.844471
0.844471
0.844471
0.844471
0.844471
0.844471
0.844471
0.844471
0.844471
0.844471
0.844471
0.844471
0.844471
0.844471
0.844471
0.844471
0.844471
0.844471
0.844471
0.844471
0.844471
0.844471
0.844471
0.844471
0.844471
0.844471
0.844471
0.844471
0.844471
0.844471
0.844471
0.844471
0.844471
0.844471
0.844471
0.844471
0.844471
0.844471
0.844471
0.844471
0.844471
0.844471
0.844471
0.844471
0.844471
0.844471
0.844471
0.844471
0.844471
0.844471
0.844471
0.844471
0.844471
0.844471
0.844471
0.844471
0.844471
0.844471
0.844471
0.844471
0.844471
0.844471
0.844471
0.844471
0.844471
0.844471
0.844471
0.844471
0.844471
0.844471
0.844471
0.844471
0.844471
0.844471
0.844471
0.844471
0.844471
0.844471
0.844471
0.844471
0.844471
0.844471
0.844471
0.844471
0.844471
0.844471
0.844471
0.844471
0.844471
0.844471
0.844471
0.844471
0.844471
0.844471
0.844471
0.844471
0.844471
0.844471
0.844471
0.844471
0.844471
0.844471
0.844471
0.844471
0.844471
0.844471
0.844471
0.844471
0.844471
0.844471
0.844471
0.844471
0.844471
0.844471
0.844471
0.844471
0.844471
0.844471
0.844471
0.844471
0.844471
0.844471
0.844471
0.844471
0.844471
0.844471
0.844471
0.844471
0.844471
0.844471
0.844471
0.844471
0.844471
0.844471
0.844471
0.844471
0.844471
0.844471
0.844471
0.844471
0.844471
0.844471
0.844471
0.844471
0.844471
0.844471
0.844471
0.844471
0.844471
0.844471
0.844471
0.844471
0.844471
0.844471
0.844471
0.844471
0.844471
0.844471
0.844471
0.844471
0.844471
0.844471
0.844471
0.844471
0.844471
0.844471
0.844471
0.844471
0.844471
0.844471
0.844471
0.844471
0.844471
0.844471
0.844471
0.844471
0.844471
0.844471
0.844471
0.844471
0.844471
0.844471
0.844471
0.844471
0.844471
0.844471
0.844471
0.844471
0.844471
0.844471
0.844471
0.844471
0.844471
0.844471
0.844471
0.844471
0.844471
0.844471
0.844471
0.844471
0.844471
0.844471
0.844471
0.844471
0.844471
0.844471
0.844471
0.844471
0.844471
0.844471
0.844471
0.844471
0.844471
0.844471
0.844471
0.844471
0.844471
0.844471
0.844471
0.844471
0.844471
0.844471
0.844471
0.844471
0.844471
0.844471
0.844471
0.844471
0.844471
0.844471
0.844471
0.844471
0.844471
0.844471
0.844471
0.844471
0.844471
0.844471
0.844471
0.844471
0.844471
0.844471
0.844471
0.844471
0.844471
0.844471
0.844471
0.844471
0.844471
0.844471
0.844471
0.844471
0.844471
0.844471
0.844471
0.844471
0.844471
0.844471
0.844471
0.844471
0.844471
0.844471
0.844471
0.844471
0.844471
0.844471
0.844471
0.844471
0.844471
0.844471
0.844471
0.844471
0.844471
0.844471
0.844471
0.844471
0.844471
0.844471
0.844471
0.844471
0.844471
0.844471
0.844471
0.844471
0.844471
0.844471
0.844471
0.844471
0.844471
0.844471
0.844471
0.844471
0.844471
0.844471
0.844471
0.844471
0.844471
0.844471
0.844471
0.844471
0.844471
0.844471
0.844471
0.844471
0.844471
0.844471
0.844471
0.844471
0.844471
0.844471
0.844471
0.844471
0.844471
0.844471
0.844471
0.844471
0.844471
0.844471
0.844471
0.844471
0.844471
0.844471
0.844471
0.844471
0.844471
0.844471
0.844471
0.844471
0.844471
0.844471
0.844471
0.844471
0.844471
0.844471
0.844471
0.844471
0.844471
0.844471
0.844471
0.844471
0.844471
0.844471
0.844471
0.844471
0.844471
0.844471
0.844471
0.844471
0.844471
0.844471
0.844471
0.844471
0.844471
0.844471
0.844471
0.844471
0.844471
0.844471
0.844471
0.844471
0.844471
0.844471
0.844471
0.844471
0.844471
0.844471
0.844471
0.844471
0.844471
0.844471
0.844471
0.844471
0.844471
0.844471
0.844471
0.844471
0.844471
0.844471
0.844471
0.844471
0.844471
0.844471
0.844471
0.844471
0.844471
0.844471
0.844471
0.844471
0.844471
0.844471
0.844471
0.844471
0.844471
0.844471
0.844471
0.844471
0.844471
0.844471
0.844471
0.844471
0.844471
0.844471
0.844471
0.844471
0.844471
0.844471
0.844471
0.844471
0.844471
0.844471
0.844471
0.844471
0.844471
0.844471
0.844471
0.844471
0.844471
0.844471
0.844471
0.844471
0.844471
0.844471
0.844471
0.844471
0.844471
0.844471
0.844471
0.844471
0.844471
0.844471
0.844471
0.844471
0.844471
0.844471
0.844471
0.844471
0.844471
0.844471
0.844471
0.844471
0.844471
0.844471
0.844471
0.844471
0.844471
0.844471
0.844471
0.844471
0.844471
0.844471
0.844471
0.844471
0.844471
0.844471
0.844471
0.844471
0.844471
0.844471
0.844471
0.844471
0.844471
0.844471
0.844471
0.844471
0.844471
0.844471
0.844471
0.844471
0.844471
0.844471
0.844471
0.844471
0.844471
0.844471
0.844471
0.844471
0.844471
0.844471
0.844471
0.844471
0.844471
0.844471
0.844471
0.844471
0.844471
0.844471
0.844471
0.844471
0.844471
0.844471
0.844471
0.844471
0.844471
0.844471
0.844471
0.844471
0.844471
0.844471
0.844471
0.844471
0.844471
0.844471
0.844471
0.844471
0.844471
0.844471
0.844471
0.844471
0.844471
0.844471
0.844471
0.844471
0.844471
0.844471
0.844471
0.844471
0.844471
0.844471
0.844471
0.844471
0.844471
0.844471
0.844471
0.844471
0.844471
0.844471
0.844471
0.844471
0.844471
0.844471
0.844471
0.844471
0.844471
0.844471
0.844471
0.844471
0.844471
0.844471
0.844471
0.844471
0.844471
0.844471
0.844471
0.844471
0.844471
0.844471
0.844471
0.844471
0.844471
0.844471
0.844471
0.844471
0.844471
0.844471
0.844471
0.844471
0.844471
0.844471
0.844471
0.844471
0.844471
0.844471
0.844471
0.844471
0.844471
0.844471
0.844471
0.844471
0.844471
0.844471
0.844471
0.844471
0.844471
0.844471
0.844471
0.844471
0.844471
0.844471
0.844471
0.844471
0.844471
0.844471
0.844471
0.844471
0.844471
0.844471
0.844471
0.844471
0.844471
0.844471
0.844471
0.844471
0.844471
0.844471
0.844471
0.844471
0.844471
0.844471
0.844471
0.844471
0.844471
0.844471
0.844471
0.844471
0.844471
0.844471
0.844471
0.844471
0.844471
0.844471
0.844471
0.844471
0.844471
0.844471
0.844471
0.844471
0.844471
0.844471
0.844471
0.844471
0.844471
0.844471
0.844471
0.844471
0.844471
0.844471
0.844471
0.844471
0.844471
0.844471
0.844471
0.844471
0.844471
0.844471
0.844471
0.844471
0.844471
0.844471
0.844471
0.844471
0.844471
0.844471
0.844471
0.844471
0.844471
0.844471
0.844471
0.844471
0.844471
0.844471
0.844471
0.844471
0.844471
0.844471
0.844471
0.844471
0.844471
0.844471
0.844471
0.844471
0.844471
0.844471
0.844471
0.844471
0.844471
0.844471
0.844471
0.844471
0.844471
0.844471
0.844471
0.844471
0.844471
0.844471
0.844471
0.844471
0.844471
0.844471
0.844471
0.844471
0.844471
0.844471
0.844471
0.844471
0.844471
0.844471
0.844471
0.844471
0.844471
0.844471
0.844471
0.844471
0.844471
0.844471
0.844471
0.844471
0.844471
0.844471
0.844471
0.844471
0.844471
0.844471
0.844471
0.844471
0.844471
0.844471
0.844471
0.844471
0.844471
0.844471
0.844471
0.844471
0.844471
0.844471
0.844471
0.844471
0.844471
0.844471
0.844471
0.844471
0.844471
0.844471
0.844471
0.844471
0.844471
0.844471
0.844471
0.844471
0.844471
0.844471
0.844471
0.844471
0.844471
0.844471
0.844471
0.844471
0.844471
0.844471
0.844471
0.844471
0.844471
0.844471
0.844471
0.844471
0.844471
0.844471
0.844471
0.844471
0.844471
0.844471
0.844471
0.844471
0.844471
0.844471
0.844471
0.844471
0.844471
0.844471
0.844471
0.844471
0.844471
0.844471
0.844471
0.844471
0.844471
0.844471
0.844471
0.844471
0.844471
0.844471
0.844471
0.844471
0.844471
0.844471
0.844471
0.844471
0.844471
0.844471
0.844471
0.844471
0.844471
0.844471
0.844471
0.844471
0.844471
0.844471
0.844471
0.844471
0.844471
0.844471
0.844471
0.844471
0.844471
0.844471
0.844471
0.844471
0.844471
0.844471
0.844471
0.844471
0.844471
0.844471
0.844471
0.844471
0.844471
0.844471
0.844471
0.844471
0.844471
0.844471
0.844471
0.844471
0.844471
0.844471
0.844471
0.844471
0.844471
0.844471
0.844471
0.844471
0.844471
0.844471
0.844471
0.844471
0.844471
0.844471
0.844471
0.844471
0.844471
0.844471
0.844471
0.844471
0.844471
0.844471
0.844471
0.844471
0.844471
0.844471
0.844471
0.844471
0.844471
0.844471
0.844471
0.844471
0.844471
0.844471
0.844471
0.844471
0.844471
0.844471
0.844471
0.844471
0.844471
0.844471
0.844471
0.844471
0.844471
0.844471
0.844471
0.844471
0.844471
0.844471
0.844471
0.844471
0.844471
0.844471
0.844471
0.844471
0.844471
0.844471
0.844471
0.844471
0.844471
0.844471
0.844471
0.844471
0.844471
0.844471
0.844471
0.844471
0.844471
0.844471
0.844471
0.844471
0.844471
0.844471
0.844471
0.844471
0.844471
0.844471
0.844471
0.844471
0.844471
0.844471
0.844471
0.844471
0.844471
0.844471
0.844471
0.844471
0.844471
0.844471
0.844471
0.844471
0.844471
0.844471
0.844471
0.844471
0.844471
0.844471
0.844471
0.844471
0.844471
0.844471
0.844471
0.844471
0.844471
0.844471
0.844471
0.844471
0.844471
0.844471
0.844471
0.844471
0.844471
0.844471
0.844471
0.844471
0.844471
0.844471
0.844471
0.844471
0.844471
0.844471
0.844471
0.844471
0.844471
0.844471
0.844471
0.844471
0.844471
0.844471
0.844471
0.844471
0.844471
0.844471
0.844471
0.844471
0.844471
0.844471
0.844471
0.844471
0.844471
0.844471
0.844471
0.844471
0.844471
0.844471
0.844471
0.844471
0.844471
0.844471
0.844471
0.844471
0.844471
0.844471
0.844471
0.844471
0.844471
0.844471
0.844471
0.844471
0.844471
0.844471
0.844471
0.844471
0.844471
0.844471
0.844471
0.844471
0.844471
0.844471
0.844471
0.844471
0.844471
0.844471
0.844471
0.844471
0.844471
0.844471
0.844471
0.844471
0.844471
0.844471
0.844471
0.844471
0.844471
0.844471
0.844471
0.844471
0.844471
0.844471
0.844471
0.844471
0.844471
0.844471
0.844471
SCALARS Sigma_due_to_Mx double 1
LOOKUP_TABLE default
-2.66337
-2.31955
-1.97412
-1.62844
-1.28387
-0.941782
-0.603522
-0.270416
0.0562031
0.37507
0.684904
0.984495
1.27265
1.54825
1.81019
2.05744
2.28903
2.50405
2.70164
2.88102
3.04149
3.18241
3.30324
3.40347
3.48275
3.54072
3.57718
3.59198
3.58506
3.55645
3.50626
3.43469
3.34202
3.22862
3.09493
2.94149
2.76889
2.57783
2.36904
2.14336
1.90168
1.64495
1.37419
1.09046
0.794888
0.48863
0.172899
-0.151049
-0.481951
-0.818499
-1.15935
-1.50317
-1.84861
-2.19429
-2.53885
-2.88094
-3.2192
-3.5523
-3.87893
-4.19779
-4.50763
-4.80721
-5.09538
-5.37097
-5.63291
-5.88017
-6.11176
-6.32677
-6.52436
-6.70375
-6.86422
-7.00514
-7.12596
-7.2262
-7.30546
-7.36344
-7.39991
-7.4147
-7.40779
-7.37917
-7.32899
-7.25741
-7.16474
-7.05134
-6.91766
-6.76421
-6.59161
-6.40054
-6.19176
-5.96608
-5.7244
-5.46768
-5.19691
-4.91318
-4.61761
-4.31135
-3.99562
-3.67167
-3.34077
-3.00423
-1.91139
-0.913987
0.723576
-2.20167
-4.59635
-4.38575
-3.29906
0.991947
-0.0545899
-5.65551
-3.84272
-0.8615
-2.01232
-4.93531
-0.591896
-2.25387
-2.86954
0.597364
1.99073
1.37452
-1.18161
-3.32858
-5.91471
-2.67148
-0.624504
2.12501
-5.71575
-3.51293
-5.00641
-3.23669
-4.31988
-4.42874
-0.36655
1.64975
2.1874
0.737883
0.981882
-0.0100804
-2.11646
-0.00984534
-1.16406
-3.20925
0.145041
-5.88505
-1.87755
0.298797
-1.26698
-2.59041
-1.84778
-6.44995
-3.61727
-1.34503
-6.3691
-4.59059
-3.79722
-5.14452
2.66554
-1.51225
-4.03285
2.25459
-2.43455
-1.56953
-5.19292
-5.29115
-2.93829
-0.259765
-4.2298
-1.30292
-5.18732
-2.62673
-1.98603
1.41176
2.6495
1.52955
0.228662
1.33142
-2.72989
-2.89136
-5.75283
1.58832
-0.620201
1.35423
-3.72449
-0.779263
-1.08259
0.879945
-4.06842
-0.0282518
0.542337
-4.36268
-5.77492
2.29296
-6.42742
-2.53462
0.646387
-5.04881
-0.545597
-3.69418
-0.0591837
-3.04051
-0.163639
-3.62975
-1.60765
-6.57081
-1.40957
-4.10076
-0.933625
1.61989
-2.8197
1.05325
2.85519
0.318233
-6.40181
-1.193
-2.265
0.2991
-4.36805
-6.71636
-5.29229
-0.671006
-3.28623
1.22996
-4.27607
-1.92492
0.792348
-3.14677
-2.38922
0.0825166
-0.764729
-4.92918
-1.76664
-5.04751
-5.29961
-1.27157
1.94446
2.83964
-2.04618
-4.38875
-4.49572
2.98278
-3.82128
-5.74179
-5.87859
-3.40435
1.91746
2.25656
-1.87516
-0.0183722
1.53544
-0.600992
-2.59309
-5.69702
2.72954
-1.22394
-2.45438
-3.68558
-3.16964
2.15724
1.1285
1.03358
-2.75974
-2.28185
-3.44897
0.783243
-0.218701
0.462182
-2.73859
-0.582416
-0.592411
-4.7272
-6.19804
1.8411
-3.15236
-1.436
-5.33774
-3.84881
-0.0535657
-0.33124
-5.71131
-0.168116
0.481295
-6.30186
-0.787225
-2.38216
1.57725
-0.207296
-1.65626
-4.7047
-2.41923
-3.95796
-0.424559
-2.06053
-1.11052
-6.18721
-1.51736
0.537464
-4.55861
-3.6766
0.849952
-1.67714
-1.38148
-2.1083
-1.84171
-6.50251
0.366902
0.305387
-5.7174
2.33654
2.76523
-3.5579
2.48381
-6.88911
-2.19597
-4.12526
-5.27486
1.21826
0.471598
-0.555722
-4.93374
-3.31326
-0.716858
-1.81288
-6.8404
1.86129
1.16541
-4.54588
-3.35942
0.930884
-1.37938
-1.14271
-5.07488
-1.5348
-5.49744
-3.13525
-1.48455
-3.18083
-4.59563
0.409043
-3.77727
-4.6731
-1.803
-4.87416
3.05904
-3.90877
-3.19068
1.42795
1.67237
-1.10866
0.823648
-2.36066
-4.07126
1.17119
-6.97761
-6.83151
-5.34574
-4.00657
-6.05937
-3.66345
-0.919998
2.51285
-4.24036
-1.01843
-6.73112
-4.8673
-1.91278
-3.72896
-1.9307
-6.29067
-2.31691
-0.823709
-2.79265
-2.92344
-2.90002
-5.56863
-0.66534
-4.92862
-4.73828
2.40093
-4.47686
-2.81024
-4.74334
-1.61084
-2.9322
-2.65444
3.06613
1.84228
0.303413
-2.36703
1.63959
-5.39101
-0.146492
0.279277
-5.29293
-3.10454
2.05872
-3.39239
-5.57145
0.907638
2.47826
2.3656
2.30826
1.24952
1.5995
-2.19127
-4.14562
-1.07642
-2.66436
-0.44309
0.192944
-5.64198
0.148118
1.51663
-0.770097
2.17903
-0.325054
-6.09729
-2.81147
-1.10473
3.18517
-5.42522
-4.27342
-2.25616
-3.10316
-2.82137
-6.34121
0.974678
-6.2474
-1.72732
-0.333588
-2.30389
0.620352
-3.72572
1.03843
1.28066
1.48474
-4.05322
-4.14114
-1.05144
3.17562
0.699092
-1.25854
-2.30211
-6.04577
-0.0712806
0.639646
-4.07673
1.92201
-4.87141
-1.47689
1.22701
-0.414777
0.386895
-6.02994
-0.921009
1.27296
-4.22996
-0.291426
-3.72174
-6.13412
-3.14844
0.30886
1.98123
0.276334
-4.28821
-2.74835
-4.0009
0.0219944
-2.86205
0.775678
-2.89558
-1.06533
0.612779
2.77121
-0.757389
-1.98671
-2.9243
-5.34509
-3.68501
3.03423
-3.55528
-2.33433
-0.489493
-0.375473
-0.567809
2.17962
-5.96172
1.66923
0.97938
-6.75401
-2.98849
-1.48538
-2.1243
-0.882505
-0.349097
-2.1828
-1.42462
-4.43149
-3.25109
1.1864
-4.52608
-4.12871
0.103441
-2.2194
-5.64744
-0.933158
-5.08264
-1.5774
-1.56313
-6.59236
-1.39795
-7.0162
-0.221525
2.82753
-3.48474
-4.07691
-0.0245299
-3.45931
1.35529
-3.27256
-1.85908
-4.32427
2.42774
-0.26019
-1.66717
-5.42464
-4.96999
1.31348
0.604654
2.40426
-5.36989
1.98872
-1.36631
-1.47476
-5.24944
-6.41312
-3.50082
0.0897814
0.061976
-3.56062
0.236791
0.105142
-7.02495
-4.72678
-1.79971
-1.15986
-4.65986
-4.04322
1.81138
-4.93201
-3.44565
-0.142924
-2.51825
-2.07673
-5.34541
-2.51855
-1.22621
-2.51214
-1.59088
-6.03297
-3.39748
-5.66259
-5.3569
-1.40897
-2.62622
-4.9274
-0.375874
1.5825
-2.9423
1.2385
0.168363
-6.56774
-4.318
3.16352
-2.52323
-0.486137
-1.93441
-0.924708
2.95726
2.31298
2.62793
-5.71097
-0.77773
-3.69071
-6.5038
-2.07562
-3.3607
0.56489
-5.01936
-1.09139
-4.14077
-6.03797
-3.74409
0.485102
-1.36772
1.90252
1.66736
-3.95118
-3.87552
-1.48083
-4.31207
0.958607
1.20887
-4.99476
-6.38661
-6.77851
-1.57425
-4.67433
0.583605
1.96348
-6.06518
0.314573
-6.57638
-6.37298
-1.0756
-5.26914
-1.99741
-4.96899
0.249346
1.50571
0.0131793
-0.753124
-1.56701
-0.88173
1.35006
-5.64166
-4.63092
-4.67718
-2.50317
-1.72461
-0.513531
-0.383179
-6.21134
0.922578
-3.15922
-3.13584
-2.02201
1.86507
-5.48517
-0.37561
-3.48955
-0.783314
1.65643
-3.24598
-2.50286
2.58342
-1.15129
-0.628954
-2.01736
1.96712
-4.73818
1.53047
-1.17937
-2.89181
1.02348
-6.42359
-5.38967
-2.28873
-3.55237
0.393242
-3.18934
3.26686
-2.19602
-3.39001
1.95876
2.75317
0.634228
-3.115
-1.80719
-2.7902
0.352565
-0.914218
-0.271362
-1.39374
-7.11054
-5.4565
0.927545
-4.41796
-0.566671
2.76226
-4.57229
3.14188
2.12743
-5.56891
2.51782
2.72155
-4.50011
-3.65497
0.752964
-1.83717
-4.42728
-0.334556
-2.4529
-2.16491
-5.71567
-4.05596
0.961978
-0.251446
-3.42963
-7.06855
-4.83233
-3.95528
0.693851
-1.74957
-6.18858
-6.01966
-5.2297
-1.89091
-4.56838
-6.06086
-2.5995
2.15555
1.17643
-4.12628
-1.67004
0.208797
-2.37137
-3.78705
-5.91237
-4.30472
1.07298
-2.08956
-2.9322
-2.67181
-0.955487
1.36957
-3.16787
-0.366614
2.51991
-2.35297
-0.498034
-0.306514
1.11417
1.59548
-1.31708
0.595098
-5.96135
-5.57745
-0.0205855
1.70203
-1.23329
0.153375
-4.43549
0.396614
-6.31367
-1.70896
2.20004
2.36982
0.662949
1.0108
2.89902
2.63792
-0.583896
-0.0223302
3.01539
-3.92476
-4.35067
-1.01858
1.80484
-4.98882
-2.31043
-4.04316
-1.90976
-2.64967
-5.75761
1.99442
-1.89058
-3.67748
-5.51433
-0.624637
-7.11267
-4.67513
-4.59928
-3.79831
-3.90742
-3.05251
-0.799354
-2.45872
1.7557
-2.9058
-2.64197
-1.3185
-1.97845
-0.570871
-3.18211
0.504639
0.737551
1.21754
-5.15598
-0.828432
-3.76483
-0.725217
-6.75199
0.727289
1.22099
0.276574
-4.80373
-1.03714
-3.42764
-3.04083
-0.917131
-3.44524
-1.57429
-6.96576
-0.135187
-2.2516
-6.05828
-2.9
0.937215
-2.19422
-2.8507
-2.63675
-4.77494
-5.91249
0.0195544
-1.74628
-6.25825
2.05318
3.27941
0.740007
2.70568
-0.127547
-2.61721
-5.89933
-3.59217
-2.54681
-5.01393
1.41002
-1.90254
-6.26591
3.2829
-6.63776
-6.94916
0.662093
-4.12135
-2.66952
-0.526239
-5.62726
0.4695
-5.45395
-5.11128
-0.0707878
-5.90811
2.70154
-3.9823
-1.11431
-4.79763
-1.20376
-4.33395
-2.69362
-1.4349
0.0259363
-3.93563
-3.60444
-1.60041
-6.59993
-5.1021
-5.8334
-4.95949
-4.73445
-3.57435
-3.87895
-2.15541
2.44494
0.341945
-4.31384
-2.57598
0.895688
2.95077
1.45761
0.467756
-2.68693
-0.0964325
-5.26154
1.32619
-4.26624
-6.55536
-3.41406
1.31719
0.630639
-1.3347
-1.56649
-1.98449
-4.98123
2.55571
-6.77594
-1.19198
2.25868
-0.511006
-0.908577
-4.73518
-0.567196
1.76934
1.62521
0.789646
-2.17764
-2.42927
2.18679
-0.0822387
-4.77866
-2.55307
0.0274447
-4.91645
-3.06651
0.381049
-3.8981
-1.59422
-2.05273
1.115
1.82473
1.57524
0.919002
-0.908197
-1.84988
-5.27131
2.46573
-6.07849
-3.70175
-5.13821
-2.7768
-5.0887
1.61591
-6.6722
0.949974
0.691025
1.88325
-4.51524
-1.80336
-3.35012
-3.98859
-6.83088
-3.5376
-4.28653
-6.18653
0.187693
0.720362
-1.55497
-3.14574
0.151611
0.375
-5.48755
-0.791388
-5.74266
-1.25705
-2.40434
-3.06318
-4.64209
0.864815
-5.14049
-0.950393
-2.05567
-2.72293
-1.80516
-0.814624
-3.16875
-5.93914
-0.613816
-0.81318
-2.35041
-1.3534
1.88184
2.95857
-3.46814
-0.589343
0.395801
-1.14447
-0.646425
-3.45885
-3.91561
2.22883
-3.75234
-3.06679
-3.15747
-4.31246
0.120613
1.60875
-5.04038
3.02665
-0.235586
-1.52478
2.52349
-2.86666
-3.03426
-1.70234
-4.40546
-1.66694
-3.37171
-0.308888
0.989859
-2.97173
-2.19742
-3.18631
-5.87413
0.896585
-2.19936
1.15961
-1.78818
2.76926
3.30509
-0.317854
-3.33806
-1.95857
0.0584801
-4.73647
-7.0835
-3.32179
-2.88215
-2.372
-3.80281
0.478552
-7.08373
-5.57206
-0.370649
-0.392376
1.40313
-0.929472
1.4918
-2.43829
-0.479301
-6.70349
-0.404409
-0.687281
2.49221
-5.73228
-0.876575
-4.06375
-4.50909
-1.12129
-1.35087
-4.08386
-1.32052
3.22015
-1.2523
-2.72819
-5.71053
1.89569
-4.70298
-2.917
1.75111
-1.35967
1.40231
-4.48413
-5.17761
-1.67709
-3.75548
-4.06226
-2.14894
1.71994
-7.20344
-2.46558
-2.60188
-1.30312
-0.791763
1.27902
0.845528
-3.40708
-1.15154
1.43906
0.517148
-6.78377
-1.30197
-4.19179
-1.07579
0.996359
1.08827
-0.685384
-5.28394
-5.21976
-5.45602
3.3934
-6.42876
-1.02248
-3.53456
0.990928
0.0346794
-0.27642
0.232712
-4.05387
0.295831
2.27511
-4.25507
1.19577
-0.410011
-6.08716
1.37758
-3.6077
2.20729
2.95403
1.16644
-3.05366
-1.97327
0.437804
2.14567
-0.113425
-2.94527
2.17736
-0.312244
-4.50124
-5.69217
-1.07314
0.400334
-0.806284
-4.91898
2.48481
-2.49999
-3.05594
SCALARS Sigma_due_to_My double 1
LOOKUP_TABLE default
9.40013
9.4366
9.45139
9.44448
9.41587
9.36568
9.2941
9.20143
9.08803
8.95435
8.8009
8.62831
8.43724